    2    2    1    1
  0.5156986E+02  0.2460000E-09  0.2460000E-09  0.1968000E-08  0.5000000E-15
  1.000000000000000E-004
  CAR 
 unknown system                          
    8 3721   12
 
 -0.5000000E+00 -0.5000000E+00  0.0000000E+00  0.2777778E-03
   1      -17.004088
   2      -15.979897
   3       -9.130358
   4       -5.072771
   5       -1.014231
   6        4.745911
   7        8.442634
   8        8.591783
   9        9.276870
  10        9.442058
  11        9.689333
  12        9.763324
 
 -0.4833333E+00 -0.5000000E+00  0.0000000E+00  0.2777778E-03
   1      -17.030832
   2      -15.942258
   3       -9.150909
   4       -5.078135
   5       -1.001814
   6        4.776915
   7        8.257175
   8        8.792368
   9        9.095940
  10        9.458421
  11        9.628271
  12       10.012048
 
 -0.4666667E+00 -0.5000000E+00  0.0000000E+00  0.2777778E-03
   1      -17.101201
   2      -15.839212
   3       -9.212494
   4       -5.092547
   5       -0.966053
   6        4.869576
   7        8.028804
   8        8.862827
   9        9.065221
  10        9.213150
  11        9.850824
  12       10.181082
 
 -0.4500000E+00 -0.5000000E+00  0.0000000E+00  0.2777778E-03
   1      -17.196190
   2      -15.690013
   3       -9.312883
   4       -5.115570
   5       -0.906786
   6        5.021612
   7        7.813348
   8        8.638896
   9        8.983262
  10        9.356199
  11        9.833960
  12       10.242503
 
 -0.4333333E+00 -0.5000000E+00  0.0000000E+00  0.2777778E-03
   1      -17.300878
   2      -15.509841
   3       -9.449207
   4       -5.145496
   5       -0.828677
   6        5.229284
   7        7.613817
   8        8.427913
   9        8.772921
  10        9.648690
  11        9.656618
  12       10.165972
 
 -0.4166667E+00 -0.5000000E+00  0.0000000E+00  0.2777778E-03
   1      -17.406282
   2      -15.308121
   3       -9.617752
   4       -5.180739
   5       -0.734241
   6        5.489153
   7        7.431173
   8        8.231169
   9        8.580646
  10        9.457892
  11        9.938650
  12       10.004589
 
 -0.4000000E+00 -0.5000000E+00  0.0000000E+00  0.2777778E-03
   1      -17.507426
   2      -15.090477
   3       -9.813447
   4       -5.219382
   5       -0.627160
   6        5.795917
   7        7.266095
   8        8.049446
   9        8.406616
  10        9.278288
  11        9.801859
  12       10.281852
 
 -0.3833333E+00 -0.5000000E+00  0.0000000E+00  0.2777778E-03
   1      -17.601428
   2      -14.860863
   3      -10.031955
   4       -5.259546
   5       -0.511948
   6        6.142733
   7        7.119879
   8        7.882913
   9        8.250894
  10        9.112716
  11        9.649742
  12       10.584508
 
 -0.3666667E+00 -0.5000000E+00  0.0000000E+00  0.2777778E-03
   1      -17.686500
   2      -14.622227
   3      -10.267887
   4       -5.299073
   5       -0.392681
   6        6.519435
   7        6.998495
   8        7.732250
   9        8.113555
  10        8.962638
  11        9.514905
  12       10.551727
 
 -0.3500000E+00 -0.5000000E+00  0.0000000E+00  0.2777778E-03
   1      -17.761568
   2      -14.377593
   3      -10.515604
   4       -5.336384
   5       -0.274020
   6        6.802936
   7        7.019312
   8        7.597974
   9        7.994733
  10        8.829099
  11        9.398020
  12       10.410685
 
 -0.3333333E+00 -0.5000000E+00  0.0000000E+00  0.2777778E-03
   1      -17.825938
   2      -14.130878
   3      -10.769684
   4       -5.370439
   5       -0.162714
   6        6.751451
   7        7.416516
   8        7.480773
   9        7.895112
  10        8.712941
  11        9.299368
  12       10.274593
 
 -0.3166667E+00 -0.5000000E+00  0.0000000E+00  0.2777778E-03
   1      -17.879130
   2      -13.887297
   3      -11.022306
   4       -5.399811
   5       -0.062384
   6        6.678224
   7        7.381822
   8        7.795693
   9        7.890031
  10        8.615371
  11        9.219467
  12       10.153816
 
 -0.3000000E+00 -0.5000000E+00  0.0000000E+00  0.2777778E-03
   1      -17.920728
   2      -13.655687
   3      -11.262684
   4       -5.423553
   5        0.021844
   6        6.618671
   7        7.302523
   8        7.743996
   9        8.349554
  10        8.537649
  11        9.159997
  12       10.054492
 
 -0.2833334E+00 -0.5000000E+00  0.0000000E+00  0.2777778E-03
   1      -17.950613
   2      -13.451855
   3      -11.474191
   4       -5.441104
   5        0.085090
   6        6.575480
   7        7.244294
   8        7.698975
   9        8.480958
  10        8.810010
  11        9.132956
  12        9.980729
 
 -0.2666667E+00 -0.5000000E+00  0.0000000E+00  0.2777778E-03
   1      -17.968603
   2      -13.302928
   3      -11.627857
   4       -5.451692
   5        0.124982
   6        6.549409
   7        7.208730
   8        7.671714
   9        8.446496
  10        9.040771
  11        9.340804
  12        9.935496
 
 -0.2500000E+00 -0.5000000E+00  0.0000000E+00  0.2777778E-03
   1      -17.974567
   2      -13.246188
   3      -11.685973
   4       -5.455013
   5        0.139310
   6        6.540788
   7        7.196825
   8        7.662612
   9        8.434967
  10        9.047596
  11        9.638193
  12        9.920300
 
 -0.2333333E+00 -0.5000000E+00  0.0000000E+00  0.2777778E-03
   1      -17.968600
   2      -13.302783
   3      -11.628037
   4       -5.451706
   5        0.125009
   6        6.549414
   7        7.208729
   8        7.671714
   9        8.446494
  10        9.040779
  11        9.340518
  12        9.935489
 
 -0.2166667E+00 -0.5000000E+00  0.0000000E+00  0.2777778E-03
   1      -17.950606
   2      -13.451615
   3      -11.474506
   4       -5.441131
   5        0.085145
   6        6.575490
   7        7.244294
   8        7.698977
   9        8.480955
  10        8.809804
  11        9.132884
  12        9.980714
 
 -0.2000000E+00 -0.5000000E+00  0.0000000E+00  0.2777778E-03
   1      -17.920718
   2      -13.655399
   3      -11.263081
   4       -5.423593
   5        0.021925
   6        6.618688
   7        7.302522
   8        7.743999
   9        8.349324
  10        8.537645
  11        9.159976
  12       10.054472
 
 -0.1833333E+00 -0.5000000E+00  0.0000000E+00  0.2777778E-03
   1      -17.879117
   2      -13.886985
   3      -11.022759
   4       -5.399865
   5       -0.062278
   6        6.678249
   7        7.381822
   8        7.795685
   9        7.889830
  10        8.615367
  11        9.219456
  12       10.153790
 
 -0.1666667E+00 -0.5000000E+00  0.0000000E+00  0.2777778E-03
   1      -17.825922
   2      -14.130554
   3      -10.770177
   4       -5.370507
   5       -0.162584
   6        6.751490
   7        7.416327
   8        7.480773
   9        7.895107
  10        8.712936
  11        9.299362
  12       10.274560
 
 -0.1500000E+00 -0.5000000E+00  0.0000000E+00  0.2777778E-03
   1      -17.761551
   2      -14.377266
   3      -10.516133
   4       -5.336465
   5       -0.273867
   6        6.803002
   7        7.019120
   8        7.597974
   9        7.994731
  10        8.829094
  11        9.398019
  12       10.410647
 
 -0.1333334E+00 -0.5000000E+00  0.0000000E+00  0.2777778E-03
   1      -17.686482
   2      -14.621898
   3      -10.268444
   4       -5.299168
   5       -0.392507
   6        6.519370
   7        6.998467
   8        7.732250
   9        8.113554
  10        8.962634
  11        9.514908
  12       10.551683
 
 -0.1166667E+00 -0.5000000E+00  0.0000000E+00  0.2777778E-03
   1      -17.601412
   2      -14.860536
   3      -10.032537
   4       -5.259655
   5       -0.511753
   6        6.142666
   7        7.119882
   8        7.882914
   9        8.250895
  10        9.112712
  11        9.649748
  12       10.584709
 
 -0.1000000E+00 -0.5000000E+00  0.0000000E+00  0.2777778E-03
   1      -17.507413
   2      -15.090150
   3       -9.814052
   4       -5.219504
   5       -0.626946
   6        5.795865
   7        7.266110
   8        8.049447
   9        8.406616
  10        9.278283
  11        9.801868
  12       10.282015
 
 -0.8333337E-01 -0.5000000E+00  0.0000000E+00  0.2777778E-03
   1      -17.406275
   2      -15.307789
   3       -9.618374
   4       -5.180874
   5       -0.734010
   6        5.489123
   7        7.431195
   8        8.231170
   9        8.580647
  10        9.457887
  11        9.938732
  12       10.004654
 
 -0.6666669E-01 -0.5000000E+00  0.0000000E+00  0.2777778E-03
   1      -17.300880
   2      -15.509502
   3       -9.449839
   4       -5.145643
   5       -0.828433
   6        5.229270
   7        7.613846
   8        8.427914
   9        8.772922
  10        9.648682
  11        9.656733
  12       10.165986
 
 -0.5000001E-01 -0.5000000E+00  0.0000000E+00  0.2777778E-03
   1      -17.196208
   2      -15.689661
   3       -9.313523
   4       -5.115726
   5       -0.906530
   6        5.021610
   7        7.813382
   8        8.638897
   9        8.983264
  10        9.356298
  11        9.833944
  12       10.242497
 
 -0.3333336E-01 -0.5000000E+00  0.0000000E+00  0.2777778E-03
   1      -17.101241
   2      -15.838841
   3       -9.213135
   4       -5.092711
   5       -0.965788
   6        4.869585
   7        8.028843
   8        8.862828
   9        9.065308
  10        9.213150
  11        9.850796
  12       10.181094
 
 -0.1666671E-01 -0.5000000E+00  0.0000000E+00  0.2777778E-03
   1      -17.030895
   2      -15.941864
   3       -9.151551
   4       -5.078303
   5       -1.001543
   6        4.776932
   7        8.257218
   8        8.792448
   9        9.095944
  10        9.458416
  11        9.628249
  12       10.012067
 
 -0.3000000E-07 -0.5000000E+00  0.0000000E+00  0.2777778E-03
   1      -17.004162
   2      -15.979494
   3       -9.131002
   4       -5.072941
   5       -1.013958
   6        4.745929
   7        8.442663
   8        8.591876
   9        9.276893
  10        9.442019
  11        9.689262
  12        9.763406
 
  0.1666665E-01 -0.5000000E+00  0.0000000E+00  0.2777778E-03
   1      -17.030895
   2      -15.941864
   3       -9.151551
   4       -5.078303
   5       -1.001543
   6        4.776931
   7        8.257219
   8        8.792447
   9        9.095944
  10        9.458417
  11        9.628248
  12       10.012066
 
  0.3333330E-01 -0.5000000E+00  0.0000000E+00  0.2777778E-03
   1      -17.101241
   2      -15.838841
   3       -9.213135
   4       -5.092711
   5       -0.965788
   6        4.869584
   7        8.028844
   8        8.862829
   9        9.065307
  10        9.213150
  11        9.850795
  12       10.181095
 
  0.4999995E-01 -0.5000000E+00  0.0000000E+00  0.2777778E-03
   1      -17.196208
   2      -15.689662
   3       -9.313523
   4       -5.115726
   5       -0.906531
   6        5.021609
   7        7.813383
   8        8.638898
   9        8.983264
  10        9.356297
  11        9.833945
  12       10.242496
 
  0.6666660E-01 -0.5000000E+00  0.0000000E+00  0.2777778E-03
   1      -17.300880
   2      -15.509503
   3       -9.449839
   4       -5.145643
   5       -0.828433
   6        5.229269
   7        7.613847
   8        8.427915
   9        8.772923
  10        9.648683
  11        9.656732
  12       10.165987
 
  0.8333331E-01 -0.5000000E+00  0.0000000E+00  0.2777778E-03
   1      -17.406274
   2      -15.307790
   3       -9.618373
   4       -5.180874
   5       -0.734011
   6        5.489122
   7        7.431196
   8        8.231170
   9        8.580647
  10        9.457887
  11        9.938731
  12       10.004654
 
  0.9999996E-01 -0.5000000E+00  0.0000000E+00  0.2777778E-03
   1      -17.507413
   2      -15.090150
   3       -9.814052
   4       -5.219504
   5       -0.626947
   6        5.795864
   7        7.266110
   8        8.049448
   9        8.406617
  10        9.278284
  11        9.801869
  12       10.282014
 
  0.1166666E+00 -0.5000000E+00  0.0000000E+00  0.2777778E-03
   1      -17.601411
   2      -14.860537
   3      -10.032536
   4       -5.259655
   5       -0.511754
   6        6.142665
   7        7.119882
   8        7.882914
   9        8.250895
  10        9.112712
  11        9.649749
  12       10.584708
 
  0.1333333E+00 -0.5000000E+00  0.0000000E+00  0.2777778E-03
   1      -17.686482
   2      -14.621899
   3      -10.268444
   4       -5.299168
   5       -0.392507
   6        6.519369
   7        6.998467
   8        7.732250
   9        8.113554
  10        8.962634
  11        9.514908
  12       10.551683
 
  0.1500000E+00 -0.5000000E+00  0.0000000E+00  0.2777778E-03
   1      -17.761551
   2      -14.377267
   3      -10.516132
   4       -5.336465
   5       -0.273867
   6        6.803001
   7        7.019119
   8        7.597975
   9        7.994732
  10        8.829095
  11        9.398020
  12       10.410648
 
  0.1666666E+00 -0.5000000E+00  0.0000000E+00  0.2777778E-03
   1      -17.825922
   2      -14.130555
   3      -10.770176
   4       -5.370507
   5       -0.162584
   6        6.751491
   7        7.416326
   8        7.480773
   9        7.895107
  10        8.712937
  11        9.299363
  12       10.274561
 
  0.1833333E+00 -0.5000000E+00  0.0000000E+00  0.2777778E-03
   1      -17.879116
   2      -13.886986
   3      -11.022758
   4       -5.399864
   5       -0.062278
   6        6.678249
   7        7.381822
   8        7.795685
   9        7.889829
  10        8.615367
  11        9.219456
  12       10.153790
 
  0.1999999E+00 -0.5000000E+00  0.0000000E+00  0.2777778E-03
   1      -17.920718
   2      -13.655400
   3      -11.263080
   4       -5.423593
   5        0.021925
   6        6.618688
   7        7.302522
   8        7.743999
   9        8.349321
  10        8.537645
  11        9.159976
  12       10.054472
 
  0.2166666E+00 -0.5000000E+00  0.0000000E+00  0.2777778E-03
   1      -17.950606
   2      -13.451616
   3      -11.474506
   4       -5.441131
   5        0.085145
   6        6.575491
   7        7.244294
   8        7.698977
   9        8.480956
  10        8.809803
  11        9.132884
  12        9.980714
 
  0.2333333E+00 -0.5000000E+00  0.0000000E+00  0.2777778E-03
   1      -17.968600
   2      -13.302784
   3      -11.628037
   4       -5.451706
   5        0.125009
   6        6.549414
   7        7.208729
   8        7.671714
   9        8.446495
  10        9.040779
  11        9.340516
  12        9.935489
 
  0.2499999E+00 -0.5000000E+00  0.0000000E+00  0.2777778E-03
   1      -17.974567
   2      -13.246188
   3      -11.685973
   4       -5.455013
   5        0.139310
   6        6.540788
   7        7.196825
   8        7.662612
   9        8.434967
  10        9.047596
  11        9.638193
  12        9.920300
 
  0.2666667E+00 -0.5000000E+00  0.0000000E+00  0.2777778E-03
   1      -17.968603
   2      -13.302928
   3      -11.627857
   4       -5.451692
   5        0.124982
   6        6.549409
   7        7.208730
   8        7.671714
   9        8.446496
  10        9.040771
  11        9.340805
  12        9.935496
 
  0.2833333E+00 -0.5000000E+00  0.0000000E+00  0.2777778E-03
   1      -17.950613
   2      -13.451854
   3      -11.474191
   4       -5.441104
   5        0.085090
   6        6.575480
   7        7.244294
   8        7.698975
   9        8.480958
  10        8.810011
  11        9.132956
  12        9.980728
 
  0.3000000E+00 -0.5000000E+00  0.0000000E+00  0.2777778E-03
   1      -17.920728
   2      -13.655686
   3      -11.262684
   4       -5.423553
   5        0.021844
   6        6.618671
   7        7.302523
   8        7.743996
   9        8.349555
  10        8.537648
  11        9.159997
  12       10.054492
 
  0.3166666E+00 -0.5000000E+00  0.0000000E+00  0.2777778E-03
   1      -17.879130
   2      -13.887296
   3      -11.022307
   4       -5.399811
   5       -0.062384
   6        6.678224
   7        7.381822
   8        7.795693
   9        7.890033
  10        8.615371
  11        9.219467
  12       10.153816
 
  0.3333333E+00 -0.5000000E+00  0.0000000E+00  0.2777778E-03
   1      -17.825938
   2      -14.130877
   3      -10.769686
   4       -5.370439
   5       -0.162714
   6        6.751450
   7        7.416519
   8        7.480773
   9        7.895111
  10        8.712940
  11        9.299367
  12       10.274592
 
  0.3500000E+00 -0.5000000E+00  0.0000000E+00  0.2777778E-03
   1      -17.761568
   2      -14.377592
   3      -10.515605
   4       -5.336384
   5       -0.274019
   6        6.802936
   7        7.019313
   8        7.597974
   9        7.994733
  10        8.829098
  11        9.398020
  12       10.410685
 
  0.3666666E+00 -0.5000000E+00  0.0000000E+00  0.2777778E-03
   1      -17.686500
   2      -14.622226
   3      -10.267888
   4       -5.299073
   5       -0.392681
   6        6.519436
   7        6.998494
   8        7.732249
   9        8.113554
  10        8.962638
  11        9.514905
  12       10.551727
 
  0.3833333E+00 -0.5000000E+00  0.0000000E+00  0.2777778E-03
   1      -17.601429
   2      -14.860862
   3      -10.031955
   4       -5.259546
   5       -0.511947
   6        6.142734
   7        7.119878
   8        7.882912
   9        8.250894
  10        9.112715
  11        9.649742
  12       10.584509
 
  0.4000000E+00 -0.5000000E+00  0.0000000E+00  0.2777778E-03
   1      -17.507426
   2      -15.090476
   3       -9.813447
   4       -5.219382
   5       -0.627160
   6        5.795918
   7        7.266095
   8        8.049446
   9        8.406616
  10        9.278288
  11        9.801859
  12       10.281853
 
  0.4166666E+00 -0.5000000E+00  0.0000000E+00  0.2777778E-03
   1      -17.406282
   2      -15.308120
   3       -9.617752
   4       -5.180739
   5       -0.734240
   6        5.489154
   7        7.431172
   8        8.231168
   9        8.580645
  10        9.457892
  11        9.938650
  12       10.004589
 
  0.4333333E+00 -0.5000000E+00  0.0000000E+00  0.2777778E-03
   1      -17.300878
   2      -15.509841
   3       -9.449208
   4       -5.145497
   5       -0.828676
   6        5.229284
   7        7.613817
   8        8.427913
   9        8.772920
  10        9.648689
  11        9.656619
  12       10.165972
 
  0.4499999E+00 -0.5000000E+00  0.0000000E+00  0.2777778E-03
   1      -17.196190
   2      -15.690012
   3       -9.312883
   4       -5.115570
   5       -0.906786
   6        5.021613
   7        7.813347
   8        8.638896
   9        8.983261
  10        9.356201
  11        9.833959
  12       10.242504
 
  0.4666666E+00 -0.5000000E+00  0.0000000E+00  0.2777778E-03
   1      -17.101201
   2      -15.839212
   3       -9.212495
   4       -5.092547
   5       -0.966053
   6        4.869576
   7        8.028802
   8        8.862826
   9        9.065222
  10        9.213149
  11        9.850825
  12       10.181082
 
  0.4833333E+00 -0.5000000E+00  0.0000000E+00  0.2777778E-03
   1      -17.030832
   2      -15.942257
   3       -9.150909
   4       -5.078136
   5       -1.001814
   6        4.776915
   7        8.257174
   8        8.792369
   9        9.095940
  10        9.458420
  11        9.628272
  12       10.012049
 
  0.5000000E+00 -0.5000000E+00  0.0000000E+00  0.0000000E+00
   1      -17.004088
   2      -15.979897
   3       -9.130358
   4       -5.072771
   5       -1.014231
   6        4.745911
   7        8.442634
   8        8.591783
   9        9.276870
  10        9.442058
  11        9.689333
  12        9.763324
 
 -0.5000000E+00 -0.4833333E+00  0.0000000E+00  0.2777778E-03
   1      -17.030832
   2      -15.942257
   3       -9.150909
   4       -5.078135
   5       -1.001814
   6        4.776915
   7        8.257174
   8        8.792368
   9        9.095940
  10        9.458421
  11        9.628271
  12       10.012048
 
 -0.4833333E+00 -0.4833333E+00  0.0000000E+00  0.2777778E-03
   1      -16.987114
   2      -15.963057
   3       -9.219046
   4       -5.048944
   5       -1.019302
   6        4.866215
   7        8.466149
   8        8.616577
   9        9.280129
  10        9.469331
  11        9.716579
  12        9.790689
 
 -0.4666667E+00 -0.4833333E+00  0.0000000E+00  0.2777778E-03
   1      -16.996863
   2      -15.908722
   3       -9.326132
   4       -5.029825
   5       -1.012403
   6        5.015024
   7        8.305715
   8        8.840018
   9        9.120133
  10        9.513073
  11        9.660810
  12       10.066570
 
 -0.4500000E+00 -0.4833333E+00  0.0000000E+00  0.2777778E-03
   1      -17.049888
   2      -15.789628
   3       -9.469213
   4       -5.020543
   5       -0.983634
   6        5.219908
   7        8.102690
   8        8.906757
   9        9.134514
  10        9.295221
  11        9.871145
  12       10.259712
 
 -0.4333333E+00 -0.4833333E+00  0.0000000E+00  0.2777778E-03
   1      -17.127138
   2      -15.625117
   3       -9.644448
   4       -5.020219
   5       -0.933459
   6        5.476834
   7        7.913059
   8        8.701396
   9        9.092641
  10        9.445311
  11        9.866039
  12       10.323257
 
 -0.4166667E+00 -0.4833333E+00  0.0000000E+00  0.2777778E-03
   1      -17.213852
   2      -15.430552
   3       -9.847164
   4       -5.027596
   5       -0.865170
   6        5.780655
   7        7.739698
   8        8.508565
   9        8.909806
  10        9.711436
  11        9.762012
  12       10.297703
 
 -0.4000000E+00 -0.4833333E+00  0.0000000E+00  0.2777778E-03
   1      -17.301121
   2      -15.215571
   3      -10.072815
   4       -5.041176
   5       -0.782600
   6        6.126269
   7        7.583755
   8        8.329368
   9        8.745025
  10        9.543232
  11       10.064451
  12       10.154244
 
 -0.3833333E+00 -0.4833333E+00  0.0000000E+00  0.2777778E-03
   1      -17.383985
   2      -14.986315
   3      -10.316540
   4       -5.058991
   5       -0.690683
   6        6.506662
   7        7.446716
   8        8.164441
   9        8.598513
  10        9.383391
  11        9.985633
  12       10.402705
 
 -0.3666667E+00 -0.4833333E+00  0.0000000E+00  0.2777778E-03
   1      -17.459593
   2      -14.747083
   3      -10.572865
   4       -5.079082
   5       -0.593283
   6        6.909998
   7        7.335993
   8        8.014658
   9        8.470366
  10        9.236974
  11        9.861285
  12       10.542475
 
 -0.3500000E+00 -0.4833333E+00  0.0000000E+00  0.2777778E-03
   1      -17.526177
   2      -14.501964
   3      -10.836734
   4       -5.099663
   5       -0.496444
   6        7.165449
   7        7.416374
   8        7.880833
   9        8.360756
  10        9.106538
  11        9.753863
  12       10.427806
 
 -0.3333333E+00 -0.4833333E+00  0.0000000E+00  0.2777778E-03
   1      -17.582800
   2      -14.255918
   3      -11.101526
   4       -5.119096
   5       -0.404899
   6        7.107537
   7        7.764409
   8        7.845616
   9        8.270523
  10        8.993911
  11        9.664437
  12       10.312158
 
 -0.3166667E+00 -0.4833333E+00  0.0000000E+00  0.2777778E-03
   1      -17.628674
   2      -14.016079
   3      -11.358443
   4       -5.136149
   5       -0.324446
   6        7.042008
   7        7.667322
   8        8.185963
   9        8.325880
  10        8.901017
  11        9.593806
  12       10.210100
 
 -0.3000000E+00 -0.4833333E+00  0.0000000E+00  0.2777778E-03
   1      -17.663397
   2      -13.794084
   3      -11.594368
   4       -5.150285
   5       -0.259492
   6        6.990900
   7        7.591509
   8        8.137711
   9        8.793953
  10        8.829472
  11        9.543909
  12       10.129150
 
 -0.2833334E+00 -0.4833333E+00  0.0000000E+00  0.2777778E-03
   1      -17.686714
   2      -13.611553
   3      -11.786810
   4       -5.160025
   5       -0.213351
   6        6.956377
   7        7.539446
   8        8.101713
   9        8.780900
  10        9.244969
  11        9.531154
  12       10.073509
 
 -0.2666667E+00 -0.4833333E+00  0.0000000E+00  0.2777778E-03
   1      -17.698395
   2      -13.502744
   3      -11.900682
   4       -5.164901
   5       -0.189150
   6        6.939064
   7        7.512899
   8        8.083569
   9        8.756331
  10        9.438855
  11        9.762643
  12       10.045226
 
 -0.2500000E+00 -0.4833333E+00  0.0000000E+00  0.2777778E-03
   1      -17.698393
   2      -13.502668
   3      -11.900773
   4       -5.164909
   5       -0.189136
   6        6.939068
   7        7.512898
   8        8.083570
   9        8.756330
  10        9.438866
  11        9.762326
  12       10.045222
 
 -0.2333333E+00 -0.4833333E+00  0.0000000E+00  0.2777778E-03
   1      -17.686710
   2      -13.611356
   3      -11.787058
   4       -5.160048
   5       -0.213306
   6        6.956386
   7        7.539444
   8        8.101714
   9        8.780897
  10        9.244741
  11        9.531049
  12       10.073497
 
 -0.2166667E+00 -0.4833333E+00  0.0000000E+00  0.2777778E-03
   1      -17.663390
   2      -13.793820
   3      -11.594721
   4       -5.150324
   5       -0.259417
   6        6.990914
   7        7.591506
   8        8.137714
   9        8.793668
  10        8.829466
  11        9.543879
  12       10.129130
 
 -0.2000000E+00 -0.4833333E+00  0.0000000E+00  0.2777778E-03
   1      -17.628665
   2      -14.015777
   3      -11.358858
   4       -5.136204
   5       -0.324345
   6        7.042032
   7        7.667319
   8        8.185965
   9        8.325616
  10        8.901009
  11        9.593790
  12       10.210073
 
 -0.1833333E+00 -0.4833333E+00  0.0000000E+00  0.2777778E-03
   1      -17.582790
   2      -14.255601
   3      -11.101990
   4       -5.119166
   5       -0.404770
   6        7.107575
   7        7.764406
   8        7.845375
   9        8.270517
  10        8.993903
  11        9.664429
  12       10.312123
 
 -0.1666667E+00 -0.4833333E+00  0.0000000E+00  0.2777778E-03
   1      -17.526167
   2      -14.501639
   3      -10.837233
   4       -5.099749
   5       -0.496290
   6        7.165515
   7        7.416131
   8        7.880831
   9        8.360754
  10        9.106528
  11        9.753860
  12       10.427763
 
 -0.1500000E+00 -0.4833333E+00  0.0000000E+00  0.2777778E-03
   1      -17.459583
   2      -14.746753
   3      -10.573395
   4       -5.079184
   5       -0.593106
   6        6.909897
   7        7.335952
   8        8.014656
   9        8.470365
  10        9.236964
  11        9.861286
  12       10.542424
 
 -0.1333334E+00 -0.4833333E+00  0.0000000E+00  0.2777778E-03
   1      -17.383979
   2      -14.985982
   3      -10.317098
   4       -5.059108
   5       -0.690484
   6        6.506550
   7        7.446716
   8        8.164440
   9        8.598513
  10        9.383381
  11        9.985638
  12       10.402897
 
 -0.1166667E+00 -0.4833333E+00  0.0000000E+00  0.2777778E-03
   1      -17.301120
   2      -15.215234
   3      -10.073397
   4       -5.041306
   5       -0.782380
   6        6.126175
   7        7.583768
   8        8.329368
   9        8.745025
  10        9.543220
  11       10.064570
  12       10.154289
 
 -0.1000000E+00 -0.4833333E+00  0.0000000E+00  0.2777778E-03
   1      -17.213862
   2      -15.430207
   3       -9.847768
   4       -5.027739
   5       -0.864933
   6        5.780585
   7        7.739720
   8        8.508565
   9        8.909807
  10        9.711420
  11        9.762141
  12       10.297714
 
 -0.8333337E-01 -0.4833333E+00  0.0000000E+00  0.2777778E-03
   1      -17.127163
   2      -15.624758
   3       -9.645068
   4       -5.020372
   5       -0.933208
   6        5.476784
   7        7.913088
   8        8.701397
   9        9.092642
  10        9.445422
  11        9.866015
  12       10.323249
 
 -0.6666669E-01 -0.4833333E+00  0.0000000E+00  0.2777778E-03
   1      -17.049933
   2      -15.789251
   3       -9.469846
   4       -5.020705
   5       -0.983373
   6        5.219879
   7        8.102725
   8        8.906758
   9        9.134610
  10        9.295220
  11        9.871107
  12       10.259726
 
 -0.5000001E-01 -0.4833333E+00  0.0000000E+00  0.2777778E-03
   1      -16.996929
   2      -15.908325
   3       -9.326775
   4       -5.029992
   5       -1.012134
   6        5.015013
   7        8.305753
   8        8.840105
   9        9.120138
  10        9.513068
  11        9.660780
  12       10.066589
 
 -0.3333336E-01 -0.4833333E+00  0.0000000E+00  0.2777778E-03
   1      -16.987188
   2      -15.962653
   3       -9.219689
   4       -5.049114
   5       -1.019030
   6        4.866220
   7        8.466177
   8        8.616670
   9        9.280149
  10        9.469292
  11        9.716509
  12        9.790769
 
 -0.1666671E-01 -0.4833333E+00  0.0000000E+00  0.2777778E-03
   1      -17.030893
   2      -15.941867
   3       -9.151551
   4       -5.078304
   5       -1.001542
   6        4.776929
   7        8.257224
   8        8.792441
   9        9.095943
  10        9.458417
  11        9.628250
  12       10.012066
 
 -0.3000000E-07 -0.4833333E+00  0.0000000E+00  0.2777778E-03
   1      -17.118382
   2      -15.855479
   3       -9.124405
   4       -5.116841
   5       -0.960597
   6        4.749114
   7        8.004110
   8        8.846373
   9        9.042074
  10        9.185786
  11        9.842436
  12       10.155018
 
  0.1666665E-01 -0.4833333E+00  0.0000000E+00  0.2777778E-03
   1      -17.230753
   2      -15.722395
   3       -9.138375
   4       -5.163446
   5       -0.896040
   6        4.783534
   7        7.763398
   8        8.603217
   9        8.928556
  10        9.311275
  11        9.810329
  12       10.203288
 
  0.3333330E-01 -0.4833333E+00  0.0000000E+00  0.2777778E-03
   1      -17.353144
   2      -15.557743
   3       -9.193518
   4       -5.216561
   5       -0.811174
   6        4.878988
   7        7.538179
   8        8.372200
   9        8.690774
  10        9.592032
  11        9.600172
  12       10.086825
 
  0.4999995E-01 -0.4833333E+00  0.0000000E+00  0.2777778E-03
   1      -17.476553
   2      -15.370670
   3       -9.287217
   4       -5.274416
   5       -0.707642
   6        5.033899